
Host: alandro

Timers On : Thu Nov  3 18:27:56 2022
Timers Off: Thu Nov  3 18:34:45 2022

Wall Time:      408.43 seconds

                                                       Time (seconds)
Module                                       User      System        Wall        Calls

--------------------------------------------------------------------------------------

**************************************************************************************

Host: alandro

Timers On : Thu Nov  3 18:36:21 2022
Timers Off: Thu Nov  3 18:36:24 2022

Wall Time:        3.01 seconds

                                                       Time (seconds)
Module                                       User      System        Wall        Calls

--------------------------------------------------------------------------------------

**************************************************************************************

Host: alandro

Timers On : Thu Nov  3 18:36:28 2022
Timers Off: Thu Nov  3 18:37:02 2022

Wall Time:       33.32 seconds

                                                       Time (seconds)
Module                                       User      System        Wall        Calls

--------------------------------------------------------------------------------------

**************************************************************************************

Host: alandro

Timers On : Thu Nov  3 18:37:06 2022
Timers Off: Thu Nov  3 18:37:12 2022

Wall Time:        5.69 seconds

                                                       Time (seconds)
Module                                       User      System        Wall        Calls

--------------------------------------------------------------------------------------

**************************************************************************************

Host: alandro

Timers On : Thu Nov  3 18:37:16 2022
Timers Off: Thu Nov  3 18:37:43 2022

Wall Time:       26.93 seconds

                                                       Time (seconds)
Module                                       User      System        Wall        Calls

--------------------------------------------------------------------------------------

**************************************************************************************

Host: alandro

Timers On : Thu Nov  3 18:37:48 2022
Timers Off: Thu Nov  3 18:37:56 2022

Wall Time:        8.59 seconds

                                                       Time (seconds)
Module                                       User      System        Wall        Calls

--------------------------------------------------------------------------------------

**************************************************************************************

Host: alandro

Timers On : Thu Nov  3 18:38:01 2022
Timers Off: Thu Nov  3 18:38:05 2022

Wall Time:        3.64 seconds

                                                       Time (seconds)
Module                                       User      System        Wall        Calls

--------------------------------------------------------------------------------------

**************************************************************************************

Host: alandro

Timers On : Thu Nov  3 18:38:10 2022
Timers Off: Thu Nov  3 18:38:13 2022

Wall Time:        2.96 seconds

                                                       Time (seconds)
Module                                       User      System        Wall        Calls

--------------------------------------------------------------------------------------

**************************************************************************************

Host: alandro

Timers On : Thu Nov  3 18:38:18 2022
Timers Off: Thu Nov  3 18:38:27 2022

Wall Time:        8.92 seconds

                                                       Time (seconds)
Module                                       User      System        Wall        Calls

--------------------------------------------------------------------------------------

**************************************************************************************

Host: alandro

Timers On : Thu Nov  3 18:38:31 2022
Timers Off: Thu Nov  3 18:38:41 2022

Wall Time:        9.59 seconds

                                                       Time (seconds)
Module                                       User      System        Wall        Calls

--------------------------------------------------------------------------------------

**************************************************************************************

Host: alandro

Timers On : Thu Nov  3 18:38:45 2022
Timers Off: Thu Nov  3 18:50:46 2022

Wall Time:      721.51 seconds

                                                       Time (seconds)
Module                                       User      System        Wall        Calls

--------------------------------------------------------------------------------------

**************************************************************************************

Host: alandro

Timers On : Thu Nov  3 18:50:51 2022
Timers Off: Thu Nov  3 18:52:08 2022

Wall Time:       77.41 seconds

                                                       Time (seconds)
Module                                       User      System        Wall        Calls

--------------------------------------------------------------------------------------

**************************************************************************************

Host: alandro

Timers On : Wed Nov  9 17:11:16 2022
Timers Off: Wed Nov  9 17:15:29 2022

Wall Time:      252.90 seconds

                                                       Time (seconds)
Module                                       User      System        Wall        Calls

--------------------------------------------------------------------------------------

**************************************************************************************

Host: alandro

Timers On : Wed Nov  9 17:15:33 2022
Timers Off: Wed Nov  9 17:28:00 2022

Wall Time:      746.35 seconds

                                                       Time (seconds)
Module                                       User      System        Wall        Calls

--------------------------------------------------------------------------------------

**************************************************************************************

Host: alandro

Timers On : Thu Nov 10 06:03:00 2022
Timers Off: Thu Nov 10 06:08:01 2022

Wall Time:      301.42 seconds

                                                       Time (seconds)
Module                                       User      System        Wall        Calls

--------------------------------------------------------------------------------------

**************************************************************************************

Host: alandro

Timers On : Thu Nov 10 17:50:09 2022
Timers Off: Thu Nov 10 17:55:10 2022

Wall Time:      301.39 seconds

                                                       Time (seconds)
Module                                       User      System        Wall        Calls

--------------------------------------------------------------------------------------

**************************************************************************************

Host: alandro

Timers On : Fri Nov 18 05:59:50 2022
Timers Off: Fri Nov 18 05:59:51 2022

Wall Time:        0.91 seconds

                                                       Time (seconds)
Module                                       User      System        Wall        Calls

--------------------------------------------------------------------------------------

**************************************************************************************

Host: alandro

Timers On : Fri Nov 18 09:20:17 2022
Timers Off: Fri Nov 18 09:31:56 2022

Wall Time:      698.93 seconds

                                                       Time (seconds)
Module                                       User      System        Wall        Calls

--------------------------------------------------------------------------------------

**************************************************************************************

Host: alandro

Timers On : Mon Nov 21 07:18:46 2022
Timers Off: Mon Nov 21 07:18:47 2022

Wall Time:        0.84 seconds

                                                       Time (seconds)
Module                                       User      System        Wall        Calls

--------------------------------------------------------------------------------------

**************************************************************************************

Host: alandro

Timers On : Tue Nov 22 05:43:52 2022
Timers Off: Tue Nov 22 05:51:49 2022

Wall Time:      476.93 seconds

                                                       Time (seconds)
Module                                       User      System        Wall        Calls

--------------------------------------------------------------------------------------

**************************************************************************************

Host: alandro

Timers On : Tue Nov 22 06:17:22 2022
Timers Off: Tue Nov 22 06:17:23 2022

Wall Time:        0.89 seconds

                                                       Time (seconds)
Module                                       User      System        Wall        Calls

--------------------------------------------------------------------------------------

**************************************************************************************

Host: alandro

Timers On : Tue Nov 22 06:55:04 2022
Timers Off: Tue Nov 22 06:55:05 2022

Wall Time:        0.84 seconds

                                                       Time (seconds)
Module                                       User      System        Wall        Calls

--------------------------------------------------------------------------------------

**************************************************************************************

Host: alandro

Timers On : Tue Nov 22 07:01:38 2022
Timers Off: Tue Nov 22 07:01:38 2022

Wall Time:        0.83 seconds

                                                       Time (seconds)
Module                                       User      System        Wall        Calls

--------------------------------------------------------------------------------------

**************************************************************************************

Host: alandro

Timers On : Tue Nov 22 07:04:24 2022
Timers Off: Tue Nov 22 07:04:25 2022

Wall Time:        0.85 seconds

                                                       Time (seconds)
Module                                       User      System        Wall        Calls

--------------------------------------------------------------------------------------

**************************************************************************************

Host: alandro

Timers On : Tue Nov 22 07:10:14 2022
Timers Off: Tue Nov 22 07:10:14 2022

Wall Time:        0.86 seconds

                                                       Time (seconds)
Module                                       User      System        Wall        Calls

--------------------------------------------------------------------------------------

**************************************************************************************

Host: alandro

Timers On : Tue Nov 22 07:29:51 2022
Timers Off: Tue Nov 22 07:29:52 2022

Wall Time:        0.84 seconds

                                                       Time (seconds)
Module                                       User      System        Wall        Calls

--------------------------------------------------------------------------------------

**************************************************************************************

Host: alandro

Timers On : Tue Nov 22 08:05:04 2022
Timers Off: Tue Nov 22 08:05:05 2022

Wall Time:        0.84 seconds

                                                       Time (seconds)
Module                                       User      System        Wall        Calls

--------------------------------------------------------------------------------------

**************************************************************************************

Host: alandro

Timers On : Tue Nov 22 08:16:30 2022
Timers Off: Tue Nov 22 08:21:31 2022

Wall Time:      301.03 seconds

                                                       Time (seconds)
Module                                       User      System        Wall        Calls

--------------------------------------------------------------------------------------

**************************************************************************************
