
Host: alandro

Timers On : Thu Nov  3 18:07:59 2022
Timers Off: Thu Nov  3 18:09:06 2022

Wall Time:       66.77 seconds

                                                       Time (seconds)
Module                                       User      System        Wall        Calls

--------------------------------------------------------------------------------------

**************************************************************************************

Host: alandro

Timers On : Thu Nov  3 18:09:10 2022
Timers Off: Thu Nov  3 18:10:16 2022

Wall Time:       66.10 seconds

                                                       Time (seconds)
Module                                       User      System        Wall        Calls

--------------------------------------------------------------------------------------

**************************************************************************************

Host: alandro

Timers On : Thu Nov  3 18:10:20 2022
Timers Off: Thu Nov  3 18:12:31 2022

Wall Time:      131.30 seconds

                                                       Time (seconds)
Module                                       User      System        Wall        Calls

--------------------------------------------------------------------------------------

**************************************************************************************

Host: alandro

Timers On : Thu Nov  3 18:12:35 2022
Timers Off: Thu Nov  3 18:12:57 2022

Wall Time:       22.10 seconds

                                                       Time (seconds)
Module                                       User      System        Wall        Calls

--------------------------------------------------------------------------------------

**************************************************************************************

Host: alandro

Timers On : Thu Nov  3 18:13:01 2022
Timers Off: Thu Nov  3 18:13:08 2022

Wall Time:        6.47 seconds

                                                       Time (seconds)
Module                                       User      System        Wall        Calls

--------------------------------------------------------------------------------------

**************************************************************************************

Host: alandro

Timers On : Thu Nov  3 18:13:12 2022
Timers Off: Thu Nov  3 18:13:22 2022

Wall Time:        9.35 seconds

                                                       Time (seconds)
Module                                       User      System        Wall        Calls

--------------------------------------------------------------------------------------

**************************************************************************************

Host: alandro

Timers On : Thu Nov  3 18:13:26 2022
Timers Off: Thu Nov  3 18:14:05 2022

Wall Time:       38.52 seconds

                                                       Time (seconds)
Module                                       User      System        Wall        Calls

--------------------------------------------------------------------------------------

**************************************************************************************

Host: alandro

Timers On : Thu Nov  3 18:14:09 2022
Timers Off: Thu Nov  3 18:17:42 2022

Wall Time:      212.35 seconds

                                                       Time (seconds)
Module                                       User      System        Wall        Calls

--------------------------------------------------------------------------------------

**************************************************************************************

Host: alandro

Timers On : Thu Nov  3 18:17:46 2022
Timers Off: Thu Nov  3 18:18:05 2022

Wall Time:       19.06 seconds

                                                       Time (seconds)
Module                                       User      System        Wall        Calls

--------------------------------------------------------------------------------------

**************************************************************************************

Host: alandro

Timers On : Thu Nov  3 18:18:09 2022
Timers Off: Thu Nov  3 18:18:20 2022

Wall Time:       10.64 seconds

                                                       Time (seconds)
Module                                       User      System        Wall        Calls

--------------------------------------------------------------------------------------

**************************************************************************************

Host: alandro

Timers On : Thu Nov  3 18:18:24 2022
Timers Off: Thu Nov  3 18:24:09 2022

Wall Time:      344.70 seconds

                                                       Time (seconds)
Module                                       User      System        Wall        Calls

--------------------------------------------------------------------------------------

**************************************************************************************

Host: alandro

Timers On : Thu Nov  3 18:59:45 2022
Timers Off: Thu Nov  3 19:05:51 2022

Wall Time:      366.70 seconds

                                                       Time (seconds)
Module                                       User      System        Wall        Calls

--------------------------------------------------------------------------------------

**************************************************************************************

Host: alandro

Timers On : Fri Nov 18 05:59:34 2022
Timers Off: Fri Nov 18 05:59:39 2022

Wall Time:        4.99 seconds

                                                       Time (seconds)
Module                                       User      System        Wall        Calls

--------------------------------------------------------------------------------------

**************************************************************************************

Host: alandro

Timers On : Mon Nov 21 06:30:29 2022
Timers Off: Mon Nov 21 06:35:33 2022

Wall Time:      304.21 seconds

                                                       Time (seconds)
Module                                       User      System        Wall        Calls

--------------------------------------------------------------------------------------

**************************************************************************************

Host: alandro

Timers On : Mon Nov 21 07:10:38 2022
Timers Off: Mon Nov 21 07:15:43 2022

Wall Time:      304.54 seconds

                                                       Time (seconds)
Module                                       User      System        Wall        Calls

--------------------------------------------------------------------------------------

**************************************************************************************

Host: alandro

Timers On : Mon Nov 21 07:18:35 2022
Timers Off: Mon Nov 21 07:18:38 2022

Wall Time:        3.59 seconds

                                                       Time (seconds)
Module                                       User      System        Wall        Calls

--------------------------------------------------------------------------------------

**************************************************************************************

Host: alandro

Timers On : Tue Nov 22 05:55:18 2022
Timers Off: Tue Nov 22 06:00:56 2022

Wall Time:      337.26 seconds

                                                       Time (seconds)
Module                                       User      System        Wall        Calls

--------------------------------------------------------------------------------------

**************************************************************************************

Host: alandro

Timers On : Tue Nov 22 06:17:11 2022
Timers Off: Tue Nov 22 06:17:15 2022

Wall Time:        3.60 seconds

                                                       Time (seconds)
Module                                       User      System        Wall        Calls

--------------------------------------------------------------------------------------

**************************************************************************************

Host: alandro

Timers On : Tue Nov 22 06:54:52 2022
Timers Off: Tue Nov 22 06:54:56 2022

Wall Time:        3.94 seconds

                                                       Time (seconds)
Module                                       User      System        Wall        Calls

--------------------------------------------------------------------------------------

**************************************************************************************

Host: alandro

Timers On : Tue Nov 22 07:01:26 2022
Timers Off: Tue Nov 22 07:01:30 2022

Wall Time:        3.63 seconds

                                                       Time (seconds)
Module                                       User      System        Wall        Calls

--------------------------------------------------------------------------------------

**************************************************************************************

Host: alandro

Timers On : Tue Nov 22 07:04:13 2022
Timers Off: Tue Nov 22 07:04:17 2022

Wall Time:        3.59 seconds

                                                       Time (seconds)
Module                                       User      System        Wall        Calls

--------------------------------------------------------------------------------------

**************************************************************************************

Host: alandro

Timers On : Tue Nov 22 07:10:03 2022
Timers Off: Tue Nov 22 07:10:06 2022

Wall Time:        3.64 seconds

                                                       Time (seconds)
Module                                       User      System        Wall        Calls

--------------------------------------------------------------------------------------

**************************************************************************************

Host: alandro

Timers On : Tue Nov 22 07:29:40 2022
Timers Off: Tue Nov 22 07:29:43 2022

Wall Time:        3.82 seconds

                                                       Time (seconds)
Module                                       User      System        Wall        Calls

--------------------------------------------------------------------------------------

**************************************************************************************

Host: alandro

Timers On : Tue Nov 22 08:04:53 2022
Timers Off: Tue Nov 22 08:04:56 2022

Wall Time:        3.58 seconds

                                                       Time (seconds)
Module                                       User      System        Wall        Calls

--------------------------------------------------------------------------------------

**************************************************************************************

Host: alandro

Timers On : Tue Nov 22 08:23:54 2022
Timers Off: Tue Nov 22 08:23:57 2022

Wall Time:        3.58 seconds

                                                       Time (seconds)
Module                                       User      System        Wall        Calls

--------------------------------------------------------------------------------------

**************************************************************************************
