
Host: fv-az1198-621

Timers On : Fri Nov 15 14:41:25 2024
Timers Off: Fri Nov 15 14:41:31 2024

Wall Time:        6.74 seconds

                                                       Time (seconds)
Module                                       User      System        Wall        Calls

--------------------------------------------------------------------------------------

**************************************************************************************

Host: fv-az740-963

Timers On : Fri Nov 15 14:53:48 2024
Timers Off: Fri Nov 15 14:53:55 2024

Wall Time:        6.89 seconds

                                                       Time (seconds)
Module                                       User      System        Wall        Calls

--------------------------------------------------------------------------------------

**************************************************************************************

Host: fv-az1269-363

Timers On : Tue Nov 19 12:29:44 2024
Timers Off: Tue Nov 19 12:29:50 2024

Wall Time:        6.36 seconds

                                                       Time (seconds)
Module                                       User      System        Wall        Calls

--------------------------------------------------------------------------------------

**************************************************************************************

Host: fv-az1499-715

Timers On : Sat Nov 23 19:34:05 2024
Timers Off: Sat Nov 23 19:34:11 2024

Wall Time:        6.38 seconds

                                                       Time (seconds)
Module                                       User      System        Wall        Calls

--------------------------------------------------------------------------------------

**************************************************************************************

Host: fv-az520-129

Timers On : Tue Dec  3 12:25:52 2024
Timers Off: Tue Dec  3 12:25:58 2024

Wall Time:        6.55 seconds

                                                       Time (seconds)
Module                                       User      System        Wall        Calls

--------------------------------------------------------------------------------------

**************************************************************************************

Host: fv-az774-617

Timers On : Tue Dec  3 12:38:39 2024
Timers Off: Tue Dec  3 12:38:46 2024

Wall Time:        6.46 seconds

                                                       Time (seconds)
Module                                       User      System        Wall        Calls

--------------------------------------------------------------------------------------

**************************************************************************************

Host: fv-az885-705

Timers On : Thu Dec 12 13:13:29 2024
Timers Off: Thu Dec 12 13:13:35 2024

Wall Time:        6.65 seconds

                                                       Time (seconds)
Module                                       User      System        Wall        Calls

--------------------------------------------------------------------------------------

**************************************************************************************

Host: fv-az1392-861

Timers On : Thu Mar 27 23:24:37 2025
Timers Off: Thu Mar 27 23:24:43 2025

Wall Time:        6.12 seconds

                                                       Time (seconds)
Module                                       User      System        Wall        Calls

--------------------------------------------------------------------------------------

**************************************************************************************

Host: fv-az1112-936

Timers On : Fri Mar 28 00:02:21 2025
Timers Off: Fri Mar 28 00:02:27 2025

Wall Time:        5.96 seconds

                                                       Time (seconds)
Module                                       User      System        Wall        Calls

--------------------------------------------------------------------------------------

**************************************************************************************

Host: fv-az1267-555

Timers On : Fri Apr  4 18:10:55 2025
Timers Off: Fri Apr  4 18:11:01 2025

Wall Time:        5.87 seconds

                                                       Time (seconds)
Module                                       User      System        Wall        Calls

--------------------------------------------------------------------------------------

**************************************************************************************

Host: fv-az2027-821

Timers On : Fri Apr  4 21:02:32 2025
Timers Off: Fri Apr  4 21:02:38 2025

Wall Time:        5.97 seconds

                                                       Time (seconds)
Module                                       User      System        Wall        Calls

--------------------------------------------------------------------------------------

**************************************************************************************
