
Host: fv-az1198-621

Timers On : Fri Nov 15 14:41:25 2024
Timers Off: Fri Nov 15 14:41:31 2024

Wall Time:        6.74 seconds

                                                       Time (seconds)
Module                                       User      System        Wall        Calls

--------------------------------------------------------------------------------------

**************************************************************************************
